 written on  7Nov2019 at 16:55:29 
          2
        1
    1
   0    0    0    1    1    1.000000    0.000000
   0    0    0    1    2    1.000000   -1.000000
   0    0    0    2    1    1.000000    1.000000
   0    0    0    2    2   -1.000000    0.000000
  -1    0    0    1    1    2.000000    0.000000
  -1    0    0    2    2    2.000000    0.000000
   1    0    0    1    1    2.000000    0.000000
   1    0    0    2    2    2.000000    0.000000
